x<?xml version="1.0" encoding="UTF-8"?>

<configuration xmlns:xsi="http://www.w3.org/2001/XMLSchema-instance" xsi:noNamespaceSchemaLocation="http://sumo.dlr.de/xsd/sumoConfiguration.xsd">

    <input>
        <net-file value="map.net.xml"/>
        <route-files value="map.rou.xml"/>
        <additional-files value="map.poly.xml"/>
    </input>

    <output>
        <summary-output value="summary.xml"/>
        <tripinfo-output value="tripinfo.xml"/>
        <vehroute-output value="vehroute.xml"/>
        <stop-output value="ptoutput.xml"/>
    </output>

    <time>
        <begin value="0"/>
        <step-length value="0.5"/>
        <end value="1000"/>
    </time>

    <!-- <processing>
        <lateral-resolution value="0.95"/>
        <ignore-junction-blocker value="60"/>
        <collision.action value="teleport"/>
        <time-to-teleport value="300"/>
        <max-depart-delay value="900"/>
        <time-to-impatience value="120"/>
        <pedestrian.model value="striping"/>
        <pedestrian.striping.stripe-width value="0.55"/>
        <pedestrian.striping.jamtime value="60"/>
    </processing>

    <routing>
        <persontrip.transfer.car-walk value="parkingAreas,ptStops"/>
        <device.rerouting.probability value="0.6"/>
        <device.rerouting.period value="300" synonymes="device.routing.period"/>
        <device.rerouting.pre-period value="600" synonymes="device.routing.pre-period"/>
        <device.rerouting.threads value="4"/>
    </routing>

    <report>
        <verbose value="true" synonymes="v"/>
        <log value="sim.log" synonymes="l log-file"/>
        <duration-log.statistics value="true"/>
        <no-step-log value="true"/>
    </report>

    <gui_only>
        <gui-settings-file value="sophia.view.xml"/>
    </gui_only> -->

</configuration>
