<?xml version="1.0" encoding="UTF-8"?>

<!-- generated on Tue 31 Mar 2020 10:39:49 AM CEST by Eclipse SUMO GUI Version v1_5_0+0340-c5c5ce5a4d
<configuration xmlns:xsi="http://www.w3.org/2001/XMLSchema-instance" xsi:noNamespaceSchemaLocation="http://sumo.dlr.de/xsd/sumoConfiguration.xsd">

    <input>
        <net-file value="scenario/map.net.xml"/>
        <route-files value="scenario/map.rou.xml"/>
        <additional-files value="scenario/map.poly.xml"/>
    </input>

    <output>
        <summary-output value="scenario/summary.xml"/>
        <tripinfo-output value="scenario/tripinfo.xml"/>
        <vehroute-output value="scenario/vehroute.xml"/>
        <stop-output value="scenario/ptoutput.xml"/>
    </output>

    <time>
        <begin value="0"/>
        <end value="10000"/>
        <step-length value="0.5"/>
    </time>

    <report>
        <verbose value="true"/>
        <no-step-log value="true"/>
    </report>

    <traci_server>
        <remote-port value="9999"/>
        <num-clients value="1"/>
    </traci_server>

    <gui_only>
        <tracker-interval value="0.5"/>
    </gui_only>

</configuration>
-->

<tripinfos xmlns:xsi="http://www.w3.org/2001/XMLSchema-instance" xsi:noNamespaceSchemaLocation="http://sumo.dlr.de/xsd/tripinfo_file.xsd">
    <tripinfo id="2.0" depart="100.00" departLane="45770917_2" departPos="12.20" departSpeed="30.56" departDelay="0.00" arrival="173.00" arrivalLane="521010125_0" arrivalPos="386.60" arrivalSpeed="29.36" duration="73.00" routeLength="2169.88" waitingTime="0.00" waitingCount="0" stopTime="0.00" timeLoss="1.85" rerouteNo="1" devices="vehroute_2.0 tripinfo_2.0 routing_2.0" vType="bus" speedFactor="1.00" vaporized=""/>
    <tripinfo id="2.1" depart="101.00" departLane="45770917_1" departPos="12.20" departSpeed="30.56" departDelay="-0.44" arrival="174.50" arrivalLane="521010125_1" arrivalPos="386.60" arrivalSpeed="29.33" duration="73.50" routeLength="2169.88" waitingTime="0.00" waitingCount="0" stopTime="0.00" timeLoss="2.41" rerouteNo="1" devices="vehroute_2.1 tripinfo_2.1 routing_2.1" vType="bus" speedFactor="1.00" vaporized=""/>
    <tripinfo id="2.2" depart="102.50" departLane="45770917_1" departPos="12.20" departSpeed="29.44" departDelay="-0.38" arrival="176.50" arrivalLane="521010125_0" arrivalPos="386.60" arrivalSpeed="29.88" duration="74.00" routeLength="2169.88" waitingTime="0.00" waitingCount="0" stopTime="0.00" timeLoss="2.52" rerouteNo="1" devices="vehroute_2.2 tripinfo_2.2 routing_2.2" vType="bus" speedFactor="1.00" vaporized=""/>
    <tripinfo id="2.3" depart="104.00" departLane="45770917_1" departPos="12.20" departSpeed="28.65" departDelay="-0.32" arrival="178.00" arrivalLane="521010125_0" arrivalPos="386.60" arrivalSpeed="30.32" duration="74.00" routeLength="2169.88" waitingTime="0.00" waitingCount="0" stopTime="0.00" timeLoss="2.97" rerouteNo="1" devices="vehroute_2.3 tripinfo_2.3 routing_2.3" vType="bus" speedFactor="1.00" vaporized=""/>
    <tripinfo id="2.4" depart="105.50" departLane="45770917_1" departPos="12.20" departSpeed="27.20" departDelay="-0.26" arrival="180.00" arrivalLane="521010125_1" arrivalPos="386.60" arrivalSpeed="30.41" duration="74.50" routeLength="2169.88" waitingTime="0.00" waitingCount="0" stopTime="0.00" timeLoss="3.01" rerouteNo="1" devices="vehroute_2.4 tripinfo_2.4 routing_2.4" vType="bus" speedFactor="1.00" vaporized=""/>
    <tripinfo id="2.5" depart="107.00" departLane="45770917_1" departPos="12.20" departSpeed="25.94" departDelay="-0.20" arrival="181.50" arrivalLane="521010125_0" arrivalPos="386.60" arrivalSpeed="29.56" duration="74.50" routeLength="2169.88" waitingTime="0.00" waitingCount="0" stopTime="0.00" timeLoss="3.46" rerouteNo="1" devices="vehroute_2.5 tripinfo_2.5 routing_2.5" vType="bus" speedFactor="1.00" vaporized=""/>
    <tripinfo id="2.6" depart="108.50" departLane="45770917_2" departPos="12.20" departSpeed="30.56" departDelay="-0.14" arrival="182.00" arrivalLane="521010125_1" arrivalPos="386.60" arrivalSpeed="29.32" duration="73.50" routeLength="2169.88" waitingTime="0.00" waitingCount="0" stopTime="0.00" timeLoss="2.08" rerouteNo="1" devices="vehroute_2.6 tripinfo_2.6 routing_2.6" vType="bus" speedFactor="1.00" vaporized=""/>
    <tripinfo id="2.7" depart="110.00" departLane="45770917_0" departPos="12.20" departSpeed="30.56" departDelay="-0.08" arrival="183.50" arrivalLane="521010125_1" arrivalPos="386.60" arrivalSpeed="29.48" duration="73.50" routeLength="2169.88" waitingTime="0.00" waitingCount="0" stopTime="0.00" timeLoss="2.50" rerouteNo="1" devices="vehroute_2.7 tripinfo_2.7 routing_2.7" vType="bus" speedFactor="1.00" vaporized=""/>
    <tripinfo id="2.8" depart="111.50" departLane="45770917_0" departPos="12.20" departSpeed="29.94" departDelay="-0.02" arrival="185.50" arrivalLane="521010125_0" arrivalPos="386.60" arrivalSpeed="29.57" duration="74.00" routeLength="2169.88" waitingTime="0.00" waitingCount="0" stopTime="0.00" timeLoss="2.66" rerouteNo="1" devices="vehroute_2.8 tripinfo_2.8 routing_2.8" vType="bus" speedFactor="1.00" vaporized=""/>
    <tripinfo id="2.9" depart="112.50" departLane="45770917_0" departPos="12.20" departSpeed="27.55" departDelay="-0.46" arrival="186.00" arrivalLane="521010125_1" arrivalPos="386.60" arrivalSpeed="30.05" duration="73.50" routeLength="2169.88" waitingTime="0.00" waitingCount="0" stopTime="0.00" timeLoss="2.21" rerouteNo="1" devices="vehroute_2.9 tripinfo_2.9 routing_2.9" vType="bus" speedFactor="1.00" vaporized=""/>
    <tripinfo id="2.10" depart="114.00" departLane="45770917_2" departPos="12.20" departSpeed="30.56" departDelay="-0.40" arrival="187.50" arrivalLane="521010125_2" arrivalPos="386.60" arrivalSpeed="29.76" duration="73.50" routeLength="2169.88" waitingTime="0.00" waitingCount="0" stopTime="0.00" timeLoss="2.01" rerouteNo="1" devices="vehroute_2.10 tripinfo_2.10 routing_2.10" vType="bus" speedFactor="1.00" vaporized=""/>
    <tripinfo id="2.11" depart="115.50" departLane="45770917_0" departPos="12.20" departSpeed="30.56" departDelay="-0.34" arrival="189.00" arrivalLane="521010125_0" arrivalPos="386.60" arrivalSpeed="29.10" duration="73.50" routeLength="2169.88" waitingTime="0.00" waitingCount="0" stopTime="0.00" timeLoss="2.02" rerouteNo="1" devices="vehroute_2.11 tripinfo_2.11 routing_2.11" vType="bus" speedFactor="1.00" vaporized=""/>
    <tripinfo id="2.12" depart="117.00" departLane="45770917_1" departPos="12.20" departSpeed="30.56" departDelay="-0.28" arrival="190.50" arrivalLane="521010125_1" arrivalPos="386.60" arrivalSpeed="29.11" duration="73.50" routeLength="2169.88" waitingTime="0.00" waitingCount="0" stopTime="0.00" timeLoss="2.20" rerouteNo="1" devices="vehroute_2.12 tripinfo_2.12 routing_2.12" vType="bus" speedFactor="1.00" vaporized=""/>
    <tripinfo id="2.13" depart="118.50" departLane="45770917_2" departPos="12.20" departSpeed="30.56" departDelay="-0.22" arrival="192.00" arrivalLane="521010125_2" arrivalPos="386.60" arrivalSpeed="29.52" duration="73.50" routeLength="2169.88" waitingTime="0.00" waitingCount="0" stopTime="0.00" timeLoss="2.41" rerouteNo="1" devices="vehroute_2.13 tripinfo_2.13 routing_2.13" vType="bus" speedFactor="1.00" vaporized=""/>
    <tripinfo id="2.14" depart="120.00" departLane="45770917_0" departPos="12.20" departSpeed="30.56" departDelay="-0.16" arrival="193.00" arrivalLane="521010125_0" arrivalPos="386.60" arrivalSpeed="29.47" duration="73.00" routeLength="2169.88" waitingTime="0.00" waitingCount="0" stopTime="0.00" timeLoss="1.94" rerouteNo="1" devices="vehroute_2.14 tripinfo_2.14 routing_2.14" vType="bus" speedFactor="1.00" vaporized=""/>
    <tripinfo id="2.15" depart="121.50" departLane="45770917_1" departPos="12.20" departSpeed="30.56" departDelay="-0.10" arrival="195.00" arrivalLane="521010125_1" arrivalPos="386.60" arrivalSpeed="29.31" duration="73.50" routeLength="2169.88" waitingTime="0.00" waitingCount="0" stopTime="0.00" timeLoss="2.06" rerouteNo="1" devices="vehroute_2.15 tripinfo_2.15 routing_2.15" vType="bus" speedFactor="1.00" vaporized=""/>
    <tripinfo id="2.16" depart="123.00" departLane="45770917_1" departPos="12.20" departSpeed="28.91" departDelay="-0.04" arrival="197.00" arrivalLane="521010125_0" arrivalPos="386.60" arrivalSpeed="29.54" duration="74.00" routeLength="2169.88" waitingTime="0.00" waitingCount="0" stopTime="0.00" timeLoss="2.53" rerouteNo="1" devices="vehroute_2.16 tripinfo_2.16 routing_2.16" vType="bus" speedFactor="1.00" vaporized=""/>
    <tripinfo id="2.17" depart="124.00" departLane="45770917_2" departPos="12.20" departSpeed="30.56" departDelay="-0.48" arrival="197.50" arrivalLane="521010125_1" arrivalPos="386.60" arrivalSpeed="29.40" duration="73.50" routeLength="2169.88" waitingTime="0.00" waitingCount="0" stopTime="0.00" timeLoss="2.20" rerouteNo="1" devices="vehroute_2.17 tripinfo_2.17 routing_2.17" vType="bus" speedFactor="1.00" vaporized=""/>
    <tripinfo id="2.18" depart="125.50" departLane="45770917_0" departPos="12.20" departSpeed="30.56" departDelay="-0.42" arrival="199.00" arrivalLane="521010125_0" arrivalPos="386.60" arrivalSpeed="29.42" duration="73.50" routeLength="2169.88" waitingTime="0.00" waitingCount="0" stopTime="0.00" timeLoss="2.30" rerouteNo="1" devices="vehroute_2.18 tripinfo_2.18 routing_2.18" vType="bus" speedFactor="1.00" vaporized=""/>
    <tripinfo id="2.19" depart="127.00" departLane="45770917_0" departPos="12.20" departSpeed="30.52" departDelay="-0.36" arrival="200.50" arrivalLane="521010125_1" arrivalPos="386.60" arrivalSpeed="30.33" duration="73.50" routeLength="2169.88" waitingTime="0.00" waitingCount="0" stopTime="0.00" timeLoss="2.43" rerouteNo="1" devices="vehroute_2.19 tripinfo_2.19 routing_2.19" vType="bus" speedFactor="1.00" vaporized=""/>
    <tripinfo id="2.20" depart="128.50" departLane="45770917_2" departPos="12.20" departSpeed="30.56" departDelay="-0.30" arrival="201.50" arrivalLane="521010125_2" arrivalPos="386.60" arrivalSpeed="29.43" duration="73.00" routeLength="2169.88" waitingTime="0.00" waitingCount="0" stopTime="0.00" timeLoss="1.96" rerouteNo="1" devices="vehroute_2.20 tripinfo_2.20 routing_2.20" vType="bus" speedFactor="1.00" vaporized=""/>
    <tripinfo id="2.21" depart="130.00" departLane="45770917_0" departPos="12.20" departSpeed="30.56" departDelay="-0.24" arrival="203.50" arrivalLane="521010125_0" arrivalPos="386.60" arrivalSpeed="28.95" duration="73.50" routeLength="2169.88" waitingTime="0.00" waitingCount="0" stopTime="0.00" timeLoss="2.07" rerouteNo="1" devices="vehroute_2.21 tripinfo_2.21 routing_2.21" vType="bus" speedFactor="1.00" vaporized=""/>
    <tripinfo id="2.22" depart="131.50" departLane="45770917_1" departPos="12.20" departSpeed="30.56" departDelay="-0.18" arrival="205.00" arrivalLane="521010125_1" arrivalPos="386.60" arrivalSpeed="30.42" duration="73.50" routeLength="2169.88" waitingTime="0.00" waitingCount="0" stopTime="0.00" timeLoss="2.12" rerouteNo="1" devices="vehroute_2.22 tripinfo_2.22 routing_2.22" vType="bus" speedFactor="1.00" vaporized=""/>
    <tripinfo id="2.23" depart="133.00" departLane="45770917_2" departPos="12.20" departSpeed="30.56" departDelay="-0.12" arrival="206.50" arrivalLane="521010125_2" arrivalPos="386.60" arrivalSpeed="29.94" duration="73.50" routeLength="2169.88" waitingTime="0.00" waitingCount="0" stopTime="0.00" timeLoss="2.11" rerouteNo="1" devices="vehroute_2.23 tripinfo_2.23 routing_2.23" vType="bus" speedFactor="1.00" vaporized=""/>
    <tripinfo id="2.24" depart="134.50" departLane="45770917_1" departPos="12.20" departSpeed="30.56" departDelay="-0.06" arrival="208.00" arrivalLane="521010125_0" arrivalPos="386.60" arrivalSpeed="29.77" duration="73.50" routeLength="2169.88" waitingTime="0.00" waitingCount="0" stopTime="0.00" timeLoss="2.08" rerouteNo="1" devices="vehroute_2.24 tripinfo_2.24 routing_2.24" vType="bus" speedFactor="1.00" vaporized=""/>
    <tripinfo id="2.25" depart="136.00" departLane="45770917_0" departPos="12.20" departSpeed="30.56" departDelay="0.00" arrival="210.00" arrivalLane="521010125_0" arrivalPos="386.60" arrivalSpeed="30.32" duration="74.00" routeLength="2169.88" waitingTime="0.00" waitingCount="0" stopTime="0.00" timeLoss="2.63" rerouteNo="1" devices="vehroute_2.25 tripinfo_2.25 routing_2.25" vType="bus" speedFactor="1.00" vaporized=""/>
    <tripinfo id="2.26" depart="137.00" departLane="45770917_1" departPos="12.20" departSpeed="30.56" departDelay="-0.44" arrival="210.50" arrivalLane="521010125_1" arrivalPos="386.60" arrivalSpeed="29.58" duration="73.50" routeLength="2169.88" waitingTime="0.00" waitingCount="0" stopTime="0.00" timeLoss="2.10" rerouteNo="1" devices="vehroute_2.26 tripinfo_2.26 routing_2.26" vType="bus" speedFactor="1.00" vaporized=""/>
    <tripinfo id="2.27" depart="138.50" departLane="45770917_0" departPos="12.20" departSpeed="30.56" departDelay="-0.38" arrival="212.00" arrivalLane="521010125_0" arrivalPos="386.60" arrivalSpeed="30.55" duration="73.50" routeLength="2169.88" waitingTime="0.00" waitingCount="0" stopTime="0.00" timeLoss="2.41" rerouteNo="1" devices="vehroute_2.27 tripinfo_2.27 routing_2.27" vType="bus" speedFactor="1.00" vaporized=""/>
    <tripinfo id="2.28" depart="140.00" departLane="45770917_2" departPos="12.20" departSpeed="30.56" departDelay="-0.32" arrival="213.50" arrivalLane="521010125_1" arrivalPos="386.60" arrivalSpeed="30.25" duration="73.50" routeLength="2169.88" waitingTime="0.00" waitingCount="0" stopTime="0.00" timeLoss="2.07" rerouteNo="1" devices="vehroute_2.28 tripinfo_2.28 routing_2.28" vType="bus" speedFactor="1.00" vaporized=""/>
    <tripinfo id="2.29" depart="141.50" departLane="45770917_2" departPos="12.20" departSpeed="29.16" departDelay="-0.26" arrival="215.50" arrivalLane="521010125_0" arrivalPos="386.60" arrivalSpeed="30.29" duration="74.00" routeLength="2169.88" waitingTime="0.00" waitingCount="0" stopTime="0.00" timeLoss="2.55" rerouteNo="1" devices="vehroute_2.29 tripinfo_2.29 routing_2.29" vType="bus" speedFactor="1.00" vaporized=""/>
    <tripinfo id="2.30" depart="143.00" departLane="45770917_1" departPos="12.20" departSpeed="30.56" departDelay="-0.20" arrival="217.00" arrivalLane="521010125_1" arrivalPos="386.60" arrivalSpeed="30.26" duration="74.00" routeLength="2169.88" waitingTime="0.00" waitingCount="0" stopTime="0.00" timeLoss="2.58" rerouteNo="1" devices="vehroute_2.30 tripinfo_2.30 routing_2.30" vType="bus" speedFactor="1.00" vaporized=""/>
    <tripinfo id="2.31" depart="144.50" departLane="45770917_2" departPos="12.20" departSpeed="30.56" departDelay="-0.14" arrival="217.50" arrivalLane="521010125_2" arrivalPos="386.60" arrivalSpeed="29.13" duration="73.00" routeLength="2169.88" waitingTime="0.00" waitingCount="0" stopTime="0.00" timeLoss="1.99" rerouteNo="1" devices="vehroute_2.31 tripinfo_2.31 routing_2.31" vType="bus" speedFactor="1.00" vaporized=""/>
    <tripinfo id="2.32" depart="146.00" departLane="45770917_1" departPos="12.20" departSpeed="30.56" departDelay="-0.08" arrival="219.50" arrivalLane="521010125_0" arrivalPos="386.60" arrivalSpeed="30.49" duration="73.50" routeLength="2169.88" waitingTime="0.00" waitingCount="0" stopTime="0.00" timeLoss="2.15" rerouteNo="1" devices="vehroute_2.32 tripinfo_2.32 routing_2.32" vType="bus" speedFactor="1.00" vaporized=""/>
    <tripinfo id="2.33" depart="147.50" departLane="45770917_1" departPos="12.20" departSpeed="29.46" departDelay="-0.02" arrival="221.50" arrivalLane="521010125_0" arrivalPos="386.60" arrivalSpeed="30.53" duration="74.00" routeLength="2169.88" waitingTime="0.00" waitingCount="0" stopTime="0.00" timeLoss="2.75" rerouteNo="1" devices="vehroute_2.33 tripinfo_2.33 routing_2.33" vType="bus" speedFactor="1.00" vaporized=""/>
    <tripinfo id="2.34" depart="148.50" departLane="45770917_2" departPos="12.20" departSpeed="30.56" departDelay="-0.46" arrival="222.00" arrivalLane="521010125_1" arrivalPos="386.60" arrivalSpeed="30.28" duration="73.50" routeLength="2169.88" waitingTime="0.00" waitingCount="0" stopTime="0.00" timeLoss="2.02" rerouteNo="1" devices="vehroute_2.34 tripinfo_2.34 routing_2.34" vType="bus" speedFactor="1.00" vaporized=""/>
    <tripinfo id="2.35" depart="150.00" departLane="45770917_1" departPos="12.20" departSpeed="29.92" departDelay="-0.40" arrival="223.50" arrivalLane="521010125_0" arrivalPos="386.60" arrivalSpeed="29.30" duration="73.50" routeLength="2169.88" waitingTime="0.00" waitingCount="0" stopTime="0.00" timeLoss="2.30" rerouteNo="1" devices="vehroute_2.35 tripinfo_2.35 routing_2.35" vType="bus" speedFactor="1.00" vaporized=""/>
    <tripinfo id="2.36" depart="151.50" departLane="45770917_1" departPos="12.20" departSpeed="30.18" departDelay="-0.34" arrival="225.50" arrivalLane="521010125_0" arrivalPos="386.60" arrivalSpeed="30.47" duration="74.00" routeLength="2169.88" waitingTime="0.00" waitingCount="0" stopTime="0.00" timeLoss="2.96" rerouteNo="1" devices="vehroute_2.36 tripinfo_2.36 routing_2.36" vType="bus" speedFactor="1.00" vaporized=""/>
    <tripinfo id="2.37" depart="153.00" departLane="45770917_2" departPos="12.20" departSpeed="30.56" departDelay="-0.28" arrival="226.50" arrivalLane="521010125_1" arrivalPos="386.60" arrivalSpeed="30.52" duration="73.50" routeLength="2169.88" waitingTime="0.00" waitingCount="0" stopTime="0.00" timeLoss="2.12" rerouteNo="1" devices="vehroute_2.37 tripinfo_2.37 routing_2.37" vType="bus" speedFactor="1.00" vaporized=""/>
    <tripinfo id="2.38" depart="154.50" departLane="45770917_1" departPos="12.20" departSpeed="30.56" departDelay="-0.22" arrival="228.00" arrivalLane="521010125_0" arrivalPos="386.60" arrivalSpeed="30.10" duration="73.50" routeLength="2169.88" waitingTime="0.00" waitingCount="0" stopTime="0.00" timeLoss="2.34" rerouteNo="1" devices="vehroute_2.38 tripinfo_2.38 routing_2.38" vType="bus" speedFactor="1.00" vaporized=""/>
    <tripinfo id="2.39" depart="156.00" departLane="45770917_0" departPos="12.20" departSpeed="30.56" departDelay="-0.16" arrival="230.00" arrivalLane="521010125_0" arrivalPos="386.60" arrivalSpeed="30.26" duration="74.00" routeLength="2169.88" waitingTime="0.00" waitingCount="0" stopTime="0.00" timeLoss="2.72" rerouteNo="1" devices="vehroute_2.39 tripinfo_2.39 routing_2.39" vType="bus" speedFactor="1.00" vaporized=""/>
    <tripinfo id="2.40" depart="157.50" departLane="45770917_1" departPos="12.20" departSpeed="30.56" departDelay="-0.10" arrival="230.50" arrivalLane="521010125_1" arrivalPos="386.60" arrivalSpeed="29.69" duration="73.00" routeLength="2169.88" waitingTime="0.00" waitingCount="0" stopTime="0.00" timeLoss="1.93" rerouteNo="1" devices="vehroute_2.40 tripinfo_2.40 routing_2.40" vType="bus" speedFactor="1.00" vaporized=""/>
    <tripinfo id="2.41" depart="159.00" departLane="45770917_1" departPos="12.20" departSpeed="30.34" departDelay="-0.04" arrival="232.50" arrivalLane="521010125_0" arrivalPos="386.60" arrivalSpeed="28.96" duration="73.50" routeLength="2169.88" waitingTime="0.00" waitingCount="0" stopTime="0.00" timeLoss="2.44" rerouteNo="1" devices="vehroute_2.41 tripinfo_2.41 routing_2.41" vType="bus" speedFactor="1.00" vaporized=""/>
    <tripinfo id="2.42" depart="160.00" departLane="45770917_1" departPos="12.20" departSpeed="27.66" departDelay="-0.48" arrival="234.50" arrivalLane="521010125_0" arrivalPos="386.60" arrivalSpeed="29.59" duration="74.50" routeLength="2169.88" waitingTime="0.00" waitingCount="0" stopTime="0.00" timeLoss="3.38" rerouteNo="1" devices="vehroute_2.42 tripinfo_2.42 routing_2.42" vType="bus" speedFactor="1.00" vaporized=""/>
    <tripinfo id="2.43" depart="161.50" departLane="45770917_0" departPos="12.20" departSpeed="30.56" departDelay="-0.42" arrival="236.50" arrivalLane="521010125_0" arrivalPos="386.60" arrivalSpeed="30.30" duration="75.00" routeLength="2169.88" waitingTime="0.00" waitingCount="0" stopTime="0.00" timeLoss="3.88" rerouteNo="1" devices="vehroute_2.43 tripinfo_2.43 routing_2.43" vType="bus" speedFactor="1.00" vaporized=""/>
    <tripinfo id="2.44" depart="163.00" departLane="45770917_1" departPos="12.20" departSpeed="30.04" departDelay="-0.36" arrival="236.50" arrivalLane="521010125_1" arrivalPos="386.60" arrivalSpeed="29.09" duration="73.50" routeLength="2169.88" waitingTime="0.00" waitingCount="0" stopTime="0.00" timeLoss="2.27" rerouteNo="1" devices="vehroute_2.44 tripinfo_2.44 routing_2.44" vType="bus" speedFactor="1.00" vaporized=""/>
    <tripinfo id="2.45" depart="164.50" departLane="45770917_0" departPos="12.20" departSpeed="30.39" departDelay="-0.30" arrival="238.50" arrivalLane="521010125_0" arrivalPos="386.60" arrivalSpeed="30.34" duration="74.00" routeLength="2169.88" waitingTime="0.00" waitingCount="0" stopTime="0.00" timeLoss="2.97" rerouteNo="1" devices="vehroute_2.45 tripinfo_2.45 routing_2.45" vType="bus" speedFactor="1.00" vaporized=""/>
    <tripinfo id="2.46" depart="166.00" departLane="45770917_0" departPos="12.20" departSpeed="28.75" departDelay="-0.24" arrival="239.50" arrivalLane="521010125_1" arrivalPos="386.60" arrivalSpeed="29.41" duration="73.50" routeLength="2169.88" waitingTime="0.00" waitingCount="0" stopTime="0.00" timeLoss="2.19" rerouteNo="1" devices="vehroute_2.46 tripinfo_2.46 routing_2.46" vType="bus" speedFactor="1.00" vaporized=""/>
    <tripinfo id="2.47" depart="167.50" departLane="45770917_2" departPos="12.20" departSpeed="30.56" departDelay="-0.18" arrival="240.50" arrivalLane="521010125_2" arrivalPos="386.60" arrivalSpeed="30.26" duration="73.00" routeLength="2169.88" waitingTime="0.00" waitingCount="0" stopTime="0.00" timeLoss="1.82" rerouteNo="1" devices="vehroute_2.47 tripinfo_2.47 routing_2.47" vType="bus" speedFactor="1.00" vaporized=""/>
    <tripinfo id="2.48" depart="169.00" departLane="45770917_2" departPos="12.20" departSpeed="30.31" departDelay="-0.12" arrival="242.50" arrivalLane="521010125_0" arrivalPos="386.60" arrivalSpeed="29.92" duration="73.50" routeLength="2169.88" waitingTime="0.00" waitingCount="0" stopTime="0.00" timeLoss="2.37" rerouteNo="1" devices="vehroute_2.48 tripinfo_2.48 routing_2.48" vType="bus" speedFactor="1.00" vaporized=""/>
    <tripinfo id="2.49" depart="170.50" departLane="45770917_2" departPos="12.20" departSpeed="28.65" departDelay="-0.06" arrival="244.50" arrivalLane="521010125_0" arrivalPos="386.60" arrivalSpeed="29.46" duration="74.00" routeLength="2169.88" waitingTime="0.00" waitingCount="0" stopTime="0.00" timeLoss="2.81" rerouteNo="1" devices="vehroute_2.49 tripinfo_2.49 routing_2.49" vType="bus" speedFactor="1.00" vaporized=""/>
    <tripinfo id="2.50" depart="172.00" departLane="45770917_1" departPos="12.20" departSpeed="30.56" departDelay="0.00" arrival="246.00" arrivalLane="521010125_1" arrivalPos="386.60" arrivalSpeed="30.54" duration="74.00" routeLength="2169.88" waitingTime="0.00" waitingCount="0" stopTime="0.00" timeLoss="2.93" rerouteNo="1" devices="vehroute_2.50 tripinfo_2.50 routing_2.50" vType="bus" speedFactor="1.00" vaporized=""/>
    <tripinfo id="2.51" depart="173.00" departLane="45770917_2" departPos="12.20" departSpeed="29.66" departDelay="-0.44" arrival="246.50" arrivalLane="521010125_2" arrivalPos="386.60" arrivalSpeed="29.47" duration="73.50" routeLength="2169.88" waitingTime="0.00" waitingCount="0" stopTime="0.00" timeLoss="2.16" rerouteNo="1" devices="vehroute_2.51 tripinfo_2.51 routing_2.51" vType="bus" speedFactor="1.00" vaporized=""/>
    <tripinfo id="2.52" depart="174.50" departLane="45770917_1" departPos="12.20" departSpeed="30.56" departDelay="-0.38" arrival="248.00" arrivalLane="521010125_0" arrivalPos="386.60" arrivalSpeed="29.87" duration="73.50" routeLength="2169.88" waitingTime="0.00" waitingCount="0" stopTime="0.00" timeLoss="2.41" rerouteNo="1" devices="vehroute_2.52 tripinfo_2.52 routing_2.52" vType="bus" speedFactor="1.00" vaporized=""/>
    <tripinfo id="2.53" depart="176.00" departLane="45770917_2" departPos="12.20" departSpeed="30.56" departDelay="-0.32" arrival="249.50" arrivalLane="521010125_2" arrivalPos="386.60" arrivalSpeed="29.84" duration="73.50" routeLength="2169.88" waitingTime="0.00" waitingCount="0" stopTime="0.00" timeLoss="2.02" rerouteNo="1" devices="vehroute_2.53 tripinfo_2.53 routing_2.53" vType="bus" speedFactor="1.00" vaporized=""/>
    <tripinfo id="10.0" depart="100.00" departLane="197670283_2" departPos="5.60" departSpeed="22.07" departDelay="0.00" arrival="250.50" arrivalLane="8604402_0" arrivalPos="1749.58" arrivalSpeed="30.25" duration="150.50" routeLength="2054.68" waitingTime="3.00" waitingCount="1" stopTime="0.00" timeLoss="85.18" rerouteNo="0" devices="vehroute_10.0 tripinfo_10.0 routing_10.0" vType="car" speedFactor="1.03" vaporized=""/>
    <tripinfo id="30.0" depart="100.00" departLane="197670283_3" departPos="5.60" departSpeed="22.28" departDelay="0.00" arrival="251.00" arrivalLane="8604402_1" arrivalPos="1749.58" arrivalSpeed="31.44" duration="151.00" routeLength="2054.68" waitingTime="4.00" waitingCount="1" stopTime="0.00" timeLoss="86.53" rerouteNo="0" devices="vehroute_30.0 tripinfo_30.0 routing_30.0" vType="car" speedFactor="1.05" vaporized=""/>
    <tripinfo id="2.54" depart="177.50" departLane="45770917_2" departPos="12.20" departSpeed="29.76" departDelay="-0.26" arrival="251.00" arrivalLane="521010125_0" arrivalPos="386.60" arrivalSpeed="30.56" duration="73.50" routeLength="2169.88" waitingTime="0.00" waitingCount="0" stopTime="0.00" timeLoss="2.31" rerouteNo="1" devices="vehroute_2.54 tripinfo_2.54 routing_2.54" vType="bus" speedFactor="1.00" vaporized=""/>
    <tripinfo id="2.55" depart="179.00" departLane="45770917_1" departPos="12.20" departSpeed="30.56" departDelay="-0.20" arrival="253.00" arrivalLane="521010125_0" arrivalPos="386.60" arrivalSpeed="30.45" duration="74.00" routeLength="2169.88" waitingTime="0.00" waitingCount="0" stopTime="0.00" timeLoss="2.66" rerouteNo="1" devices="vehroute_2.55 tripinfo_2.55 routing_2.55" vType="bus" speedFactor="1.00" vaporized=""/>
    <tripinfo id="2.56" depart="180.50" departLane="45770917_2" departPos="12.20" departSpeed="30.56" departDelay="-0.14" arrival="254.00" arrivalLane="521010125_1" arrivalPos="386.60" arrivalSpeed="30.41" duration="73.50" routeLength="2169.88" waitingTime="0.00" waitingCount="0" stopTime="0.00" timeLoss="2.09" rerouteNo="1" devices="vehroute_2.56 tripinfo_2.56 routing_2.56" vType="bus" speedFactor="1.00" vaporized=""/>
    <tripinfo id="2.57" depart="182.00" departLane="45770917_0" departPos="12.20" departSpeed="30.56" departDelay="-0.08" arrival="255.50" arrivalLane="521010125_0" arrivalPos="386.60" arrivalSpeed="29.83" duration="73.50" routeLength="2169.88" waitingTime="0.00" waitingCount="0" stopTime="0.00" timeLoss="2.25" rerouteNo="1" devices="vehroute_2.57 tripinfo_2.57 routing_2.57" vType="bus" speedFactor="1.00" vaporized=""/>
    <tripinfo id="2.58" depart="183.50" departLane="45770917_2" departPos="12.20" departSpeed="30.56" departDelay="-0.02" arrival="257.00" arrivalLane="521010125_1" arrivalPos="386.60" arrivalSpeed="29.47" duration="73.50" routeLength="2169.88" waitingTime="0.00" waitingCount="0" stopTime="0.00" timeLoss="2.14" rerouteNo="1" devices="vehroute_2.58 tripinfo_2.58 routing_2.58" vType="bus" speedFactor="1.00" vaporized=""/>
    <tripinfo id="2.59" depart="184.50" departLane="45770917_2" departPos="12.20" departSpeed="28.43" departDelay="-0.46" arrival="259.00" arrivalLane="521010125_0" arrivalPos="386.60" arrivalSpeed="29.45" duration="74.50" routeLength="2169.88" waitingTime="0.00" waitingCount="0" stopTime="0.00" timeLoss="3.07" rerouteNo="1" devices="vehroute_2.59 tripinfo_2.59 routing_2.59" vType="bus" speedFactor="1.00" vaporized=""/>
    <tripinfo id="2.60" depart="186.00" departLane="45770917_1" departPos="12.20" departSpeed="30.56" departDelay="-0.40" arrival="260.00" arrivalLane="521010125_1" arrivalPos="386.60" arrivalSpeed="29.39" duration="74.00" routeLength="2169.88" waitingTime="0.00" waitingCount="0" stopTime="0.00" timeLoss="2.94" rerouteNo="1" devices="vehroute_2.60 tripinfo_2.60 routing_2.60" vType="bus" speedFactor="1.00" vaporized=""/>
    <tripinfo id="50.0" depart="100.50" departLane="197670283_2" departPos="5.60" departSpeed="19.62" departDelay="0.50" arrival="260.50" arrivalLane="8604402_0" arrivalPos="1749.58" arrivalSpeed="27.94" duration="160.00" routeLength="2054.68" waitingTime="0.00" waitingCount="0" stopTime="0.00" timeLoss="88.24" rerouteNo="0" devices="vehroute_50.0 tripinfo_50.0 routing_50.0" vType="car" speedFactor="0.94" vaporized=""/>
    <tripinfo id="2.61" depart="187.50" departLane="45770917_0" departPos="12.20" departSpeed="30.56" departDelay="-0.34" arrival="262.00" arrivalLane="521010125_0" arrivalPos="386.60" arrivalSpeed="29.22" duration="74.50" routeLength="2169.88" waitingTime="0.00" waitingCount="0" stopTime="0.00" timeLoss="3.34" rerouteNo="1" devices="vehroute_2.61 tripinfo_2.61 routing_2.61" vType="bus" speedFactor="1.00" vaporized=""/>
    <tripinfo id="2.62" depart="189.00" departLane="45770917_1" departPos="12.20" departSpeed="30.56" departDelay="-0.28" arrival="262.50" arrivalLane="521010125_1" arrivalPos="386.60" arrivalSpeed="30.07" duration="73.50" routeLength="2169.88" waitingTime="0.00" waitingCount="0" stopTime="0.00" timeLoss="2.13" rerouteNo="1" devices="vehroute_2.62 tripinfo_2.62 routing_2.62" vType="bus" speedFactor="1.00" vaporized=""/>
    <tripinfo id="2.63" depart="190.50" departLane="45770917_0" departPos="12.20" departSpeed="30.56" departDelay="-0.22" arrival="264.50" arrivalLane="521010125_0" arrivalPos="386.60" arrivalSpeed="29.68" duration="74.00" routeLength="2169.88" waitingTime="0.00" waitingCount="0" stopTime="0.00" timeLoss="2.53" rerouteNo="1" devices="vehroute_2.63 tripinfo_2.63 routing_2.63" vType="bus" speedFactor="1.00" vaporized=""/>