<?xml version="1.0" encoding="UTF-8"?>

<!-- generated on Tue 31 Mar 2020 10:39:49 AM CEST by Eclipse SUMO GUI Version v1_5_0+0340-c5c5ce5a4d
<configuration xmlns:xsi="http://www.w3.org/2001/XMLSchema-instance" xsi:noNamespaceSchemaLocation="http://sumo.dlr.de/xsd/sumoConfiguration.xsd">

    <input>
        <net-file value="scenario/map.net.xml"/>
        <route-files value="scenario/map.rou.xml"/>
        <additional-files value="scenario/map.poly.xml"/>
    </input>

    <output>
        <summary-output value="scenario/summary.xml"/>
        <tripinfo-output value="scenario/tripinfo.xml"/>
        <vehroute-output value="scenario/vehroute.xml"/>
        <stop-output value="scenario/ptoutput.xml"/>
    </output>

    <time>
        <begin value="0"/>
        <end value="10000"/>
        <step-length value="0.5"/>
    </time>

    <report>
        <verbose value="true"/>
        <no-step-log value="true"/>
    </report>

    <traci_server>
        <remote-port value="9999"/>
        <num-clients value="1"/>
    </traci_server>

    <gui_only>
        <tracker-interval value="0.5"/>
    </gui_only>

</configuration>
-->

<routes xmlns:xsi="http://www.w3.org/2001/XMLSchema-instance" xsi:noNamespaceSchemaLocation="http://sumo.dlr.de/xsd/routes_file.xsd">
    <vehicle id="2.0" type="bus" depart="100.00" departLane="2" departSpeed="30.56" arrival="173.00">
        <route edges="45770917 53798521 521010125"/>
    </vehicle>

    <vehicle id="2.1" type="bus" depart="101.00" departLane="1" departSpeed="30.56" arrival="174.50">
        <route edges="45770917 53798521 521010125"/>
    </vehicle>

    <vehicle id="2.2" type="bus" depart="102.50" departLane="1" departSpeed="29.44" arrival="176.50">
        <route edges="45770917 53798521 521010125"/>
    </vehicle>

    <vehicle id="2.3" type="bus" depart="104.00" departLane="1" departSpeed="28.65" arrival="178.00">
        <route edges="45770917 53798521 521010125"/>
    </vehicle>

    <vehicle id="2.4" type="bus" depart="105.50" departLane="1" departSpeed="27.20" arrival="180.00">
        <route edges="45770917 53798521 521010125"/>
    </vehicle>

    <vehicle id="2.5" type="bus" depart="107.00" departLane="1" departSpeed="25.94" arrival="181.50">
        <route edges="45770917 53798521 521010125"/>
    </vehicle>

    <vehicle id="2.6" type="bus" depart="108.50" departLane="2" departSpeed="30.56" arrival="182.00">
        <route edges="45770917 53798521 521010125"/>
    </vehicle>

    <vehicle id="2.7" type="bus" depart="110.00" departLane="0" departSpeed="30.56" arrival="183.50">
        <route edges="45770917 53798521 521010125"/>
    </vehicle>

    <vehicle id="2.8" type="bus" depart="111.50" departLane="0" departSpeed="29.94" arrival="185.50">
        <route edges="45770917 53798521 521010125"/>
    </vehicle>

    <vehicle id="2.9" type="bus" depart="112.50" departLane="0" departSpeed="27.55" arrival="186.00">
        <route edges="45770917 53798521 521010125"/>
    </vehicle>

    <vehicle id="2.10" type="bus" depart="114.00" departLane="2" departSpeed="30.56" arrival="187.50">
        <route edges="45770917 53798521 521010125"/>
    </vehicle>

    <vehicle id="2.11" type="bus" depart="115.50" departLane="0" departSpeed="30.56" arrival="189.00">
        <route edges="45770917 53798521 521010125"/>
    </vehicle>

    <vehicle id="2.12" type="bus" depart="117.00" departLane="1" departSpeed="30.56" arrival="190.50">
        <route edges="45770917 53798521 521010125"/>
    </vehicle>

    <vehicle id="2.13" type="bus" depart="118.50" departLane="2" departSpeed="30.56" arrival="192.00">
        <route edges="45770917 53798521 521010125"/>
    </vehicle>

    <vehicle id="2.14" type="bus" depart="120.00" departLane="0" departSpeed="30.56" arrival="193.00">
        <route edges="45770917 53798521 521010125"/>
    </vehicle>

    <vehicle id="2.15" type="bus" depart="121.50" departLane="1" departSpeed="30.56" arrival="195.00">
        <route edges="45770917 53798521 521010125"/>
    </vehicle>

    <vehicle id="2.16" type="bus" depart="123.00" departLane="1" departSpeed="28.91" arrival="197.00">
        <route edges="45770917 53798521 521010125"/>
    </vehicle>

    <vehicle id="2.17" type="bus" depart="124.00" departLane="2" departSpeed="30.56" arrival="197.50">
        <route edges="45770917 53798521 521010125"/>
    </vehicle>

    <vehicle id="2.18" type="bus" depart="125.50" departLane="0" departSpeed="30.56" arrival="199.00">
        <route edges="45770917 53798521 521010125"/>
    </vehicle>

    <vehicle id="2.19" type="bus" depart="127.00" departLane="0" departSpeed="30.52" arrival="200.50">
        <route edges="45770917 53798521 521010125"/>
    </vehicle>

    <vehicle id="2.20" type="bus" depart="128.50" departLane="2" departSpeed="30.56" arrival="201.50">
        <route edges="45770917 53798521 521010125"/>
    </vehicle>

    <vehicle id="2.21" type="bus" depart="130.00" departLane="0" departSpeed="30.56" arrival="203.50">
        <route edges="45770917 53798521 521010125"/>
    </vehicle>

    <vehicle id="2.22" type="bus" depart="131.50" departLane="1" departSpeed="30.56" arrival="205.00">
        <route edges="45770917 53798521 521010125"/>
    </vehicle>

    <vehicle id="2.23" type="bus" depart="133.00" departLane="2" departSpeed="30.56" arrival="206.50">
        <route edges="45770917 53798521 521010125"/>
    </vehicle>

    <vehicle id="2.24" type="bus" depart="134.50" departLane="1" departSpeed="30.56" arrival="208.00">
        <route edges="45770917 53798521 521010125"/>
    </vehicle>

    <vehicle id="2.25" type="bus" depart="136.00" departLane="0" departSpeed="30.56" arrival="210.00">
        <route edges="45770917 53798521 521010125"/>
    </vehicle>

    <vehicle id="2.26" type="bus" depart="137.00" departLane="1" departSpeed="30.56" arrival="210.50">
        <route edges="45770917 53798521 521010125"/>
    </vehicle>

    <vehicle id="2.27" type="bus" depart="138.50" departLane="0" departSpeed="30.56" arrival="212.00">
        <route edges="45770917 53798521 521010125"/>
    </vehicle>

    <vehicle id="2.28" type="bus" depart="140.00" departLane="2" departSpeed="30.56" arrival="213.50">
        <route edges="45770917 53798521 521010125"/>
    </vehicle>

    <vehicle id="2.29" type="bus" depart="141.50" departLane="2" departSpeed="29.16" arrival="215.50">
        <route edges="45770917 53798521 521010125"/>
    </vehicle>

    <vehicle id="2.30" type="bus" depart="143.00" departLane="1" departSpeed="30.56" arrival="217.00">
        <route edges="45770917 53798521 521010125"/>
    </vehicle>

    <vehicle id="2.31" type="bus" depart="144.50" departLane="2" departSpeed="30.56" arrival="217.50">
        <route edges="45770917 53798521 521010125"/>
    </vehicle>

    <vehicle id="2.32" type="bus" depart="146.00" departLane="1" departSpeed="30.56" arrival="219.50">
        <route edges="45770917 53798521 521010125"/>
    </vehicle>

    <vehicle id="2.33" type="bus" depart="147.50" departLane="1" departSpeed="29.46" arrival="221.50">
        <route edges="45770917 53798521 521010125"/>
    </vehicle>

    <vehicle id="2.34" type="bus" depart="148.50" departLane="2" departSpeed="30.56" arrival="222.00">
        <route edges="45770917 53798521 521010125"/>
    </vehicle>

    <vehicle id="2.35" type="bus" depart="150.00" departLane="1" departSpeed="29.92" arrival="223.50">
        <route edges="45770917 53798521 521010125"/>
    </vehicle>

    <vehicle id="2.36" type="bus" depart="151.50" departLane="1" departSpeed="30.18" arrival="225.50">
        <route edges="45770917 53798521 521010125"/>
    </vehicle>

    <vehicle id="2.37" type="bus" depart="153.00" departLane="2" departSpeed="30.56" arrival="226.50">
        <route edges="45770917 53798521 521010125"/>
    </vehicle>

    <vehicle id="2.38" type="bus" depart="154.50" departLane="1" departSpeed="30.56" arrival="228.00">
        <route edges="45770917 53798521 521010125"/>
    </vehicle>

    <vehicle id="2.39" type="bus" depart="156.00" departLane="0" departSpeed="30.56" arrival="230.00">
        <route edges="45770917 53798521 521010125"/>
    </vehicle>

    <vehicle id="2.40" type="bus" depart="157.50" departLane="1" departSpeed="30.56" arrival="230.50">
        <route edges="45770917 53798521 521010125"/>
    </vehicle>

    <vehicle id="2.41" type="bus" depart="159.00" departLane="1" departSpeed="30.34" arrival="232.50">
        <route edges="45770917 53798521 521010125"/>
    </vehicle>

    <vehicle id="2.42" type="bus" depart="160.00" departLane="1" departSpeed="27.66" arrival="234.50">
        <route edges="45770917 53798521 521010125"/>
    </vehicle>

    <vehicle id="2.43" type="bus" depart="161.50" departLane="0" departSpeed="30.56" arrival="236.50">
        <route edges="45770917 53798521 521010125"/>
    </vehicle>

    <vehicle id="2.44" type="bus" depart="163.00" departLane="1" departSpeed="30.04" arrival="236.50">
        <route edges="45770917 53798521 521010125"/>
    </vehicle>

    <vehicle id="2.45" type="bus" depart="164.50" departLane="0" departSpeed="30.39" arrival="238.50">
        <route edges="45770917 53798521 521010125"/>
    </vehicle>

    <vehicle id="2.46" type="bus" depart="166.00" departLane="0" departSpeed="28.75" arrival="239.50">
        <route edges="45770917 53798521 521010125"/>
    </vehicle>

    <vehicle id="2.47" type="bus" depart="167.50" departLane="2" departSpeed="30.56" arrival="240.50">
        <route edges="45770917 53798521 521010125"/>
    </vehicle>

    <vehicle id="2.48" type="bus" depart="169.00" departLane="2" departSpeed="30.31" arrival="242.50">
        <route edges="45770917 53798521 521010125"/>
    </vehicle>

    <vehicle id="2.49" type="bus" depart="170.50" departLane="2" departSpeed="28.65" arrival="244.50">
        <route edges="45770917 53798521 521010125"/>
    </vehicle>

    <vehicle id="2.50" type="bus" depart="172.00" departLane="1" departSpeed="30.56" arrival="246.00">
        <route edges="45770917 53798521 521010125"/>
    </vehicle>

    <vehicle id="2.51" type="bus" depart="173.00" departLane="2" departSpeed="29.66" arrival="246.50">
        <route edges="45770917 53798521 521010125"/>
    </vehicle>

    <vehicle id="2.52" type="bus" depart="174.50" departLane="1" departSpeed="30.56" arrival="248.00">
        <route edges="45770917 53798521 521010125"/>
    </vehicle>

    <vehicle id="2.53" type="bus" depart="176.00" departLane="2" departSpeed="30.56" arrival="249.50">
        <route edges="45770917 53798521 521010125"/>
    </vehicle>

    <vehicle id="10.0" type="car" depart="100.00" departLane="2" departSpeed="22.07" color="green" arrival="250.50">
        <route edges="197670283 8604402"/>
    </vehicle>

    <vehicle id="30.0" type="car" depart="100.00" departLane="3" departSpeed="22.28" color="green" arrival="251.00">
        <route edges="197670283 8604402"/>
    </vehicle>

    <vehicle id="2.54" type="bus" depart="177.50" departLane="2" departSpeed="29.76" arrival="251.00">
        <route edges="45770917 53798521 521010125"/>
    </vehicle>

    <vehicle id="2.55" type="bus" depart="179.00" departLane="1" departSpeed="30.56" arrival="253.00">
        <route edges="45770917 53798521 521010125"/>
    </vehicle>

    <vehicle id="2.56" type="bus" depart="180.50" departLane="2" departSpeed="30.56" arrival="254.00">
        <route edges="45770917 53798521 521010125"/>
    </vehicle>

    <vehicle id="2.57" type="bus" depart="182.00" departLane="0" departSpeed="30.56" arrival="255.50">
        <route edges="45770917 53798521 521010125"/>
    </vehicle>

    <vehicle id="2.58" type="bus" depart="183.50" departLane="2" departSpeed="30.56" arrival="257.00">
        <route edges="45770917 53798521 521010125"/>
    </vehicle>

    <vehicle id="2.59" type="bus" depart="184.50" departLane="2" departSpeed="28.43" arrival="259.00">
        <route edges="45770917 53798521 521010125"/>
    </vehicle>

    <vehicle id="2.60" type="bus" depart="186.00" departLane="1" departSpeed="30.56" arrival="260.00">
        <route edges="45770917 53798521 521010125"/>
    </vehicle>

    <vehicle id="50.0" type="car" depart="100.50" departLane="2" departSpeed="19.62" color="green" arrival="260.50">
        <route edges="197670283 8604402"/>
    </vehicle>

    <vehicle id="2.61" type="bus" depart="187.50" departLane="0" departSpeed="30.56" arrival="262.00">
        <route edges="45770917 53798521 521010125"/>
    </vehicle>

    <vehicle id="2.62" type="bus" depart="189.00" departLane="1" departSpeed="30.56" arrival="262.50">
        <route edges="45770917 53798521 521010125"/>
    </vehicle>

    <vehicle id="2.63" type="bus" depart="190.50" departLane="0" departSpeed="30.56" arrival="264.50">
        <route edges="45770917 53798521 521010125"/>
    </vehicle>

    <vehicle id="2.64" type="bus" depart="192.00" departLane="2" departSpeed="30.56" arrival="265.50">
        <route edges="45770917 53798521 521010125"/>
    </vehicle>

    <vehicle id="2.65" type="bus" depart="193.50" departLane="0" departSpeed="30.56" arrival="267.00">
        <route edges="45770917 53798521 521010125"/>
    </vehicle>

    <vehicle id="2.66" type="bus" depart="195.00" departLane="2" departSpeed="30.56" arrival="268.50">
        <route edges="45770917 53798521 521010125"/>
    </vehicle>

    <vehicle id="2.67" type="bus" depart="196.00" departLane="1" departSpeed="30.56" arrival="270.00">
        <route edges="45770917 53798521 521010125"/>
    </vehicle>

    <vehicle id="20.0" type="car" depart="100.00" departLane="1" departSpeed="21.95" color="green" arrival="272.00">
        <route edges="197670283 8604402"/>
    </vehicle>

    <vehicle id="2.68" type="bus" depart="197.50" departLane="0" departSpeed="30.56" arrival="272.00">
        <route edges="45770917 53798521 521010125"/>
    </vehicle>

    <vehicle id="2.69" type="bus" depart="199.00" departLane="0" departSpeed="30.10" arrival="272.50">
        <route edges="45770917 53798521 521010125"/>
    </vehicle>

    <vehicle id="2.70" type="bus" depart="200.50" departLane="2" departSpeed="30.56" arrival="273.50">
        <route edges="45770917 53798521 521010125"/>
    </vehicle>

    <vehicle id="2.71" type="bus" depart="202.00" departLane="1" departSpeed="30.56" arrival="275.50">
        <route edges="45770917 53798521 521010125"/>
    </vehicle>

    <vehicle id="2.72" type="bus" depart="203.50" departLane="0" departSpeed="30.56" arrival="277.50">
        <route edges="45770917 53798521 521010125"/>
    </vehicle>

    <vehicle id="2.73" type="bus" depart="205.00" departLane="2" departSpeed="30.56" arrival="278.00">
        <route edges="45770917 53798521 521010125"/>
    </vehicle>

    <vehicle id="2.74" type="bus" depart="206.50" departLane="1" departSpeed="30.56" arrival="280.00">
        <route edges="45770917 53798521 521010125"/>
    </vehicle>

    <vehicle id="2.75" type="bus" depart="208.00" departLane="1" departSpeed="29.69" arrival="282.00">
        <route edges="45770917 53798521 521010125"/>
    </vehicle>

    <vehicle id="2.76" type="bus" depart="209.00" departLane="1" departSpeed="26.85" arrival="283.50">
        <route edges="45770917 53798521 521010125"/>
    </vehicle>

    <vehicle id="2.77" type="bus" depart="210.50" departLane="2" departSpeed="30.56" arrival="283.50">
        <route edges="45770917 53798521 521010125"/>
    </vehicle>

    <vehicle id="2.78" type="bus" depart="212.00" departLane="2" departSpeed="29.61" arrival="285.50">
        <route edges="45770917 53798521 521010125"/>
    </vehicle>

    <vehicle id="2.79" type="bus" depart="213.50" departLane="0" departSpeed="30.56" arrival="287.50">
        <route edges="45770917 53798521 521010125"/>
    </vehicle>

    <vehicle id="2.80" type="bus" depart="215.00" departLane="2" departSpeed="30.56" arrival="288.50">
        <route edges="45770917 53798521 521010125"/>
    </vehicle>

    <vehicle id="2.81" type="bus" depart="216.50" departLane="0" departSpeed="30.56" arrival="290.00">
        <route edges="45770917 53798521 521010125"/>
    </vehicle>

    <vehicle id="2.82" type="bus" depart="218.00" departLane="0" departSpeed="29.65" arrival="292.00">
        <route edges="45770917 53798521 521010125"/>
    </vehicle>

    <vehicle id="2.83" type="bus" depart="219.50" departLane="2" departSpeed="30.56" arrival="292.50">
        <route edges="45770917 53798521 521010125"/>
    </vehicle>

    <vehicle id="2.84" type="bus" depart="220.50" departLane="0" departSpeed="30.56" arrival="294.50">
        <route edges="45770917 53798521 521010125"/>
    </vehicle>

    <vehicle id="2.85" type="bus" depart="222.00" departLane="1" departSpeed="30.56" arrival="295.50">
        <route edges="45770917 53798521 521010125"/>
    </vehicle>

    <vehicle id="2.86" type="bus" depart="223.50" departLane="1" departSpeed="29.05" arrival="297.50">
        <route edges="45770917 53798521 521010125"/>
    </vehicle>

    <vehicle id="2.87" type="bus" depart="225.00" departLane="0" departSpeed="30.56" arrival="299.00">
        <route edges="45770917 53798521 521010125"/>
    </vehicle>

    <vehicle id="2.88" type="bus" depart="226.50" departLane="0" departSpeed="29.16" arrival="301.00">
        <route edges="45770917 53798521 521010125"/>
    </vehicle>

    <vehicle id="2.89" type="bus" depart="228.00" departLane="2" departSpeed="30.56" arrival="301.00">
        <route edges="45770917 53798521 521010125"/>
    </vehicle>

    <vehicle id="2.90" type="bus" depart="229.50" departLane="2" departSpeed="29.25" arrival="303.50">
        <route edges="45770917 53798521 521010125"/>
    </vehicle>

    <vehicle id="2.91" type="bus" depart="231.00" departLane="1" departSpeed="30.56" arrival="305.00">
        <route edges="45770917 53798521 521010125"/>
    </vehicle>

    <vehicle id="2.92" type="bus" depart="232.00" departLane="1" departSpeed="29.24" arrival="307.00">
        <route edges="45770917 53798521 521010125"/>
    </vehicle>

    <vehicle id="2.93" type="bus" depart="233.50" departLane="1" departSpeed="26.77" arrival="308.50">
        <route edges="45770917 53798521 521010125"/>
    </vehicle>

    <vehicle id="2.94" type="bus" depart="235.00" departLane="2" departSpeed="30.56" arrival="308.50">
        <route edges="45770917 53798521 521010125"/>
    </vehicle>

    <vehicle id="2.95" type="bus" depart="236.50" departLane="0" departSpeed="30.56" arrival="310.50">
        <route edges="45770917 53798521 521010125"/>
    </vehicle>

    <vehicle id="2.96" type="bus" depart="238.00" departLane="0" departSpeed="29.41" arrival="311.50">
        <route edges="45770917 53798521 521010125"/>
    </vehicle>

    <vehicle id="2.97" type="bus" depart="239.50" departLane="2" departSpeed="30.56" arrival="313.00">
        <route edges="45770917 53798521 521010125"/>
    </vehicle>

    <vehicle id="2.98" type="bus" depart="241.00" departLane="1" departSpeed="30.56" arrival="314.50">
        <route edges="45770917 53798521 521010125"/>
    </vehicle>

    <vehicle id="2.99" type="bus" depart="242.50" departLane="2" departSpeed="30.56" arrival="316.00">
        <route edges="45770917 53798521 521010125"/>
    </vehicle>

    <vehicle id="2.100" type="bus" depart="244.00" departLane="0" departSpeed="30.56" arrival="317.50">
        <route edges="45770917 53798521 521010125"/>
    </vehicle>

    <vehicle id="2.101" type="bus" depart="245.00" departLane="0" departSpeed="28.60" arrival="318.50">
        <route edges="45770917 53798521 521010125"/>
    </vehicle>

    <vehicle id="2.102" type="bus" depart="246.50" departLane="0" departSpeed="26.74" arrival="320.50">
        <route edges="45770917 53798521 521010125"/>
    </vehicle>

    <vehicle id="2.103" type="bus" depart="248.00" departLane="1" departSpeed="30.56" arrival="321.50">
        <route edges="45770917 53798521 521010125"/>
    </vehicle>

    <vehicle id="2.104" type="bus" depart="249.50" departLane="0" departSpeed="29.65" arrival="323.00">
        <route edges="45770917 53798521 521010125"/>
    </vehicle>

    <vehicle id="2.105" type="bus" depart="251.00" departLane="2" departSpeed="30.56" arrival="324.50">
        <route edges="45770917 53798521 521010125"/>
    </vehicle>

    <vehicle id="2.106" type="bus" depart="252.50" departLane="0" departSpeed="30.56" arrival="326.00">
        <route edges="45770917 53798521 521010125"/>
    </vehicle>

    <vehicle id="2.107" type="bus" depart="254.00" departLane="0" departSpeed="29.79" arrival="328.00">
        <route edges="45770917 53798521 521010125"/>
    </vehicle>

    <vehicle id="2.108" type="bus" depart="255.50" departLane="2" departSpeed="30.56" arrival="328.50">
        <route edges="45770917 53798521 521010125"/>
    </vehicle>

    <vehicle id="2.109" type="bus" depart="256.50" departLane="1" departSpeed="30.56" arrival="330.50">
        <route edges="45770917 53798521 521010125"/>
    </vehicle>

    <vehicle id="2.110" type="bus" depart="258.00" departLane="2" departSpeed="30.56" arrival="331.50">
        <route edges="45770917 53798521 521010125"/>
    </vehicle>

    <vehicle id="2.111" type="bus" depart="259.50" departLane="1" departSpeed="30.56" arrival="333.00">
        <route edges="45770917 53798521 521010125"/>
    </vehicle>

    <vehicle id="2.112" type="bus" depart="261.00" departLane="0" departSpeed="30.56" arrival="335.00">
        <route edges="45770917 53798521 521010125"/>
    </vehicle>

    <vehicle id="2.113" type="bus" depart="262.50" departLane="0" departSpeed="28.83" arrival="337.00">
        <route edges="45770917 53798521 521010125"/>
    </vehicle>

    <vehicle id="2.114" type="bus" depart="264.00" departLane="1" departSpeed="30.56" arrival="337.50">
        <route edges="45770917 53798521 521010125"/>
    </vehicle>

    <vehicle id="2.115" type="bus" depart="265.50" departLane="0" departSpeed="30.56" arrival="339.00">
        <route edges="45770917 53798521 521010125"/>
    </vehicle>

    <vehicle id="2.116" type="bus" depart="267.00" departLane="1" departSpeed="30.56" arrival="340.00">
        <route edges="45770917 53798521 521010125"/>
    </vehicle>

    <vehicle id="2.117" type="bus" depart="268.00" departLane="1" departSpeed="28.69" arrival="342.00">
        <route edges="45770917 53798521 521010125"/>
    </vehicle>

    <vehicle id="2.118" type="bus" depart="269.50" departLane="0" departSpeed="30.56" arrival="344.00">
        <route edges="45770917 53798521 521010125"/>
    </vehicle>

    <vehicle id="2.119" type="bus" depart="271.00" departLane="2" departSpeed="30.56" arrival="344.00">
        <route edges="45770917 53798521 521010125"/>
    </vehicle>

    <vehicle id="2.120" type="bus" depart="272.50" departLane="1" departSpeed="30.56" arrival="346.00">
        <route edges="45770917 53798521 521010125"/>
    </vehicle>

    <vehicle id="2.121" type="bus" depart="274.00" departLane="1" departSpeed="29.14" arrival="348.00">
        <route edges="45770917 53798521 521010125"/>
    </vehicle>

</routes>
