<?xml version="1.0" encoding="UTF-8"?>

<!-- generated on Tue 31 Mar 2020 10:24:19 AM CEST by Eclipse SUMO GUI Version v1_5_0+0340-c5c5ce5a4d
<configuration xmlns:xsi="http://www.w3.org/2001/XMLSchema-instance" xsi:noNamespaceSchemaLocation="http://sumo.dlr.de/xsd/sumoConfiguration.xsd">

    <input>
        <net-file value="scenario/map.net.xml"/>
        <route-files value="scenario/map.rou.xml"/>
        <additional-files value="scenario/map.poly.xml"/>
    </input>

    <output>
        <summary-output value="scenario/summary.xml"/>
        <tripinfo-output value="scenario/tripinfo.xml"/>
        <vehroute-output value="scenario/vehroute.xml"/>
        <stop-output value="scenario/ptoutput.xml"/>
    </output>

    <time>
        <begin value="0"/>
        <end value="10000"/>
        <step-length value="0.5"/>
    </time>

    <report>
        <verbose value="true"/>
        <no-step-log value="true"/>
    </report>

    <traci_server>
        <remote-port value="9999"/>
        <num-clients value="1"/>
    </traci_server>

    <gui_only>
        <tracker-interval value="0.5"/>
    </gui_only>

</configuration>
-->

<routes xmlns:xsi="http://www.w3.org/2001/XMLSchema-instance" xsi:noNamespaceSchemaLocation="http://sumo.dlr.de/xsd/routes_file.xsd">
</routes>
